/*--------------------------------*- C++ -*----------------------------------*\
  =========                 |
  \\      /  F ield         | OpenFOAM: The Open Source CFD Toolbox
   \\    /   O peration     | Website:  https://openfoam.org
    \\  /    A nd           | Version:  dev
     \\/     M anipulation  |

   OpenFOAM for Windows 20.09 (v1)
   Built by CFD Support, www.cfdsupport.com (based on Symscape).
\*---------------------------------------------------------------------------*/
FoamFile
{
    version     2.0;
    format      ascii;
    class       polyBoundaryMesh;
    location    "constant/polyMesh";
    object      boundary;
}
// * * * * * * * * * * * * * * * * * * * * * * * * * * * * * * * * * * * * * //

5
(
	airfoil
    {
        type            wall;
        inGroups        1(wall);
        nFaces          234;
        startFace       70580;
    }  
    empty
    {
        type            empty;
        inGroups        1(empty);
        nFaces          71512;
        startFace       70814;
    }
    inlet
    {
        type            patch;
        nFaces          31;
        startFace       70518;
    }
    outlet
    {
        type            patch;
        nFaces          31;
        startFace       70549;
    }      
    symmetry
    {
        type            symmetry;
        nFaces          612;
        startFace       142326;
    }
)

// ************************************************************************* //
